REMARK  10 active torsions:
REMARK  status: ('A' for Active; 'I' for Inactive)
REMARK    1  A    between atoms: C_18  and  O_2 
REMARK    2  A    between atoms: O_7  and  C_42 
REMARK    3  A    between atoms: O_9  and  C_44 
REMARK    4  A    between atoms: N_13  and  C_53 
REMARK    5  A    between atoms: C_16  and  C_17 
REMARK    6  A    between atoms: C_28  and  C_31 
REMARK    7  A    between atoms: C_45  and  C_54 
REMARK    8  A    between atoms: C_47  and  C_53 
REMARK    9  A    between atoms: C_49  and  C_51 
REMARK   10  A    between atoms: C_50  and  C_52 
ROOT
HETATM    1  O   UNK N   1       4.890  -2.818   0.000  0.00  0.00    -0.395 OA
HETATM    2  O   UNK N   1       5.622  -0.188   0.000  0.00  0.00    -0.394 OA
HETATM    3  O   UNK N   1      11.282  -1.904   0.000  0.00  0.00    -0.319 OA
HETATM    4  O   UNK N   1      11.755   0.002   0.000  0.00  0.00    -0.305 OA
HETATM    5  O   UNK N   1      10.671  -1.754   0.000  0.00  0.00    -0.286 OA
HETATM    6  O   UNK N   1       8.902  -0.726   0.000  0.00  0.00    -0.359 OA
HETATM    7  O   UNK N   1       5.064   1.087   0.000  0.00  0.00    -0.268 OA
HETATM    8  N   UNK N   1       4.815   0.296   0.000  0.00  0.00    -0.325 N 
HETATM    9  N   UNK N   1       2.938  -0.396   0.000  0.00  0.00    -0.413 N 
HETATM   10  N   UNK N   1       6.588   1.250   0.000  0.00  0.00    -0.320 N 
HETATM   11  N   UNK N   1       5.753   0.641   0.000  0.00  0.00    -0.313 N 
ATOM     12  HN  UNK N   1       5.838   1.658   0.000  1.00  0.00     0.186 HD
HETATM   13  C   UNK N   1       6.195  -1.679   0.000  0.00  0.00     0.040 A 
HETATM   14  C   UNK N   1       5.214  -1.872   0.000  0.00  0.00     0.130 A 
HETATM   15  C   UNK N   1       7.025  -2.236   0.000  0.00  0.00     0.128 A 
HETATM   16  C   UNK N   1       4.556  -1.118   0.000  0.00  0.00     0.040 A 
HETATM   17  C   UNK N   1       7.923  -1.797   0.000  0.00  0.00     0.018 A 
HETATM   18  C   UNK N   1       4.624  -0.120   0.000  0.00  0.00     0.131 A 
HETATM   19  C   UNK N   1       8.753  -2.354   0.000  0.00  0.00     0.012 A 
HETATM   20  C   UNK N   1       7.143  -1.360   0.000  0.00  0.00     0.015 A 
HETATM   21  C   UNK N   1       3.794   0.437   0.000  0.00  0.00     0.033 A 
HETATM   22  C   UNK N   1       3.895  -1.868   0.000  0.00  0.00     0.015 A 
HETATM   23  C   UNK N   1       7.991  -0.799   0.000  0.00  0.00     0.013 A 
HETATM   24  C   UNK N   1       8.556  -3.334   0.000  0.00  0.00     0.015 A 
HETATM   25  C   UNK N   1       9.734  -2.161   0.000  0.00  0.00     0.002 A 
HETATM   26  C   UNK N   1       2.689   0.118   0.000  0.00  0.00     0.017 A 
HETATM   27  C   UNK N   1       3.862   1.435   0.000  0.00  0.00    -0.020 A 
HETATM   28  C   UNK N   1      10.564  -2.719   0.000  0.00  0.00     0.135 A 
HETATM   29  C   UNK N   1      11.350  -0.906   0.000  0.00  0.00     0.237 A 
HETATM   30  C   UNK N   1       4.760   1.875   0.000  0.00  0.00    -0.003 A 
HETATM   31  C   UNK N   1      10.152   0.169   0.000  0.00  0.00     0.064 A 
HETATM   32  C   UNK N   1      10.361  -0.803   0.000  0.00  0.00     0.225 A 
HETATM   33  C   UNK N   1      11.018   0.669   0.000  0.00  0.00     0.096 A 
HETATM   34  C   UNK N   1       9.286   0.669   0.000  0.00  0.00     0.031 A 
HETATM   35  C   UNK N   1      12.320  -1.148   0.000  0.00  0.00     0.089 A 
HETATM   36  C   UNK N   1       9.286   1.669   0.000  0.00  0.00     0.047 A 
HETATM   37  C   UNK N   1      11.018   1.669   0.000  0.00  0.00     0.007 A 
HETATM   38  C   UNK N   1       4.828   2.873   0.000  0.00  0.00     0.012 A 
HETATM   39  C   UNK N   1      10.152   2.169   0.000  0.00  0.00     0.088 A 
HETATM   40  C   UNK N   1       8.392   0.134   0.000  0.00  0.00     0.092 A 
HETATM   41  C   UNK N   1       8.392   2.203   0.000  0.00  0.00     0.107 A 
HETATM   42  C   UNK N   1       7.486   0.648   0.000  0.00  0.00     0.044 A 
HETATM   43  C   UNK N   1       7.486   1.690   0.000  0.00  0.00     0.084 A 
HETATM   44  C   UNK N   1       5.825   2.805   0.000  0.00  0.00     0.006 A 
HETATM   45  C   UNK N   1      11.884   2.169   0.000  0.00  0.00     0.054 C 
HETATM   46  C   UNK N   1       4.047   0.936   0.000  0.00  0.00     0.162 A 
HETATM   47  C   UNK N   1       4.645  -0.690   0.000  0.00  0.00     0.162 A 
HETATM   48  C   UNK N   1       3.108   0.590   0.000  0.00  0.00     0.137 A 
HETATM   49  C   UNK N   1       3.707  -1.036   0.000  0.00  0.00     0.137 A 
HETATM   50  C   UNK N   1       5.758   1.807   0.000  0.00  0.00     0.251 A 
HETATM   51  C   UNK N   1       6.621   0.145   0.000  0.00  0.00     0.123 A 
HETATM   52  C   UNK N   1       6.579   3.462   0.000  0.00  0.00     0.054 C 
HETATM   53  C   UNK N   1       2.000  -0.741   0.000  0.00  0.00     0.143 A 
HETATM   54  H   UNK N   1       4.282  -2.937   0.000  0.00  0.00     0.210 HD
HETATM   55  H   UNK N   1       5.895  -0.745   0.000  0.00  0.00     0.210 HD
HETATM   56  H   UNK N   1       6.953   0.749   0.000  0.00  0.00     0.169 HD
HETATM   57  H   UNK N   1       9.521  -0.719   0.000  0.00  0.00     0.218 HD
ENDROOT
BRANCH  15  58
HETATM   58  O   UNK N   1       6.957  -3.234   0.000  0.00  0.00    -0.395 OA
HETATM   59  H   UNK N   1       6.400  -3.507   0.000  0.00  0.00     0.210 HD
ENDBRANCH  15  58
BRANCH  41  60
HETATM   60  O   UNK N   1       8.403   3.203   0.000  0.00  0.00    -0.357 OA
HETATM   61  H   UNK N   1       8.944   3.507   0.000  0.00  0.00     0.218 HD
ENDBRANCH  41  60
BRANCH  39  62
HETATM   62  O   UNK N   1      10.152   3.169   0.000  0.00  0.00    -0.359 OA
HETATM   63  H   UNK N   1      10.688   3.479   0.000  0.00  0.00     0.218 HD
ENDBRANCH  39  62
TORSDOF 10
