REMARK  8 active torsions:
REMARK  status: ('A' for Active; 'I' for Inactive)
REMARK    1  A    between atoms: O_7  and  C_44 
REMARK    2  A    between atoms: O_9  and  C_46 
REMARK    3  A    between atoms: N_13  and  C_55 
REMARK    4  A    between atoms: C_22  and  C_28 
REMARK    5  A    between atoms: C_47  and  C_56 
REMARK    6  A    between atoms: C_49  and  C_55 
REMARK    7  A    between atoms: C_51  and  C_53 
REMARK    8  A    between atoms: C_52  and  C_54 
ROOT
HETATM    1  O   UNK N   1       5.805  -2.526   0.000  0.00  0.00    -0.316 OA
HETATM    2  O   UNK N   1       4.626   0.977   0.000  0.00  0.00    -0.395 OA
HETATM    3  O   UNK N   1      10.386  -1.247   0.000  0.00  0.00    -0.319 OA
HETATM    4  O   UNK N   1      10.859   0.659   0.000  0.00  0.00    -0.305 OA
HETATM    5  O   UNK N   1       6.944  -3.831   0.000  0.00  0.00    -0.266 OA
HETATM    6  O   UNK N   1       9.775  -1.096   0.000  0.00  0.00    -0.286 OA
HETATM    7  O   UNK N   1       8.147   0.033   0.000  0.00  0.00    -0.359 OA
HETATM    8  O   UNK N   1       4.054   1.875   0.000  0.00  0.00    -0.268 OA
HETATM    9  N   UNK N   1       4.966  -0.844   0.000  0.00  0.00    -0.325 N 
HETATM   10  N   UNK N   1       3.439  -2.135   0.000  0.00  0.00    -0.413 N 
HETATM   11  N   UNK N   1       5.692   1.907   0.000  0.00  0.00    -0.320 N 
HETATM   12  N   UNK N   1       5.729  -0.198   0.000  0.00  0.00    -0.313 N 
ATOM     13  HN  UNK N   1       6.655  -0.626   0.000  1.00  0.00     0.186 HD
HETATM   14  C   UNK N   1       5.471  -0.826   0.000  0.00  0.00     0.012 A 
HETATM   15  C   UNK N   1       6.129  -1.579   0.000  0.00  0.00     0.140 A 
HETATM   16  C   UNK N   1       4.490  -1.019   0.000  0.00  0.00     0.013 A 
HETATM   17  C   UNK N   1       7.110  -1.387   0.000  0.00  0.00     0.019 A 
HETATM   18  C   UNK N   1       3.660  -0.461   0.000  0.00  0.00     0.011 A 
HETATM   19  C   UNK N   1       3.728   0.537   0.000  0.00  0.00     0.129 A 
HETATM   20  C   UNK N   1       7.940  -1.944   0.000  0.00  0.00     0.012 A 
HETATM   21  C   UNK N   1       6.453  -0.633   0.000  0.00  0.00     0.012 A 
HETATM   22  C   UNK N   1       2.898   1.094   0.000  0.00  0.00     0.033 A 
HETATM   23  C   UNK N   1       7.308  -0.406   0.000  0.00  0.00     0.013 A 
HETATM   24  C   UNK N   1       2.663  -0.393   0.000  0.00  0.00     0.012 A 
HETATM   25  C   UNK N   1       7.872  -2.942   0.000  0.00  0.00     0.015 A 
HETATM   26  C   UNK N   1       8.838  -1.504   0.000  0.00  0.00     0.002 A 
HETATM   27  C   UNK N   1       2.000   0.654   0.000  0.00  0.00     0.017 A 
HETATM   28  C   UNK N   1       2.966   2.092   0.000  0.00  0.00    -0.020 A 
HETATM   29  C   UNK N   1       5.998  -3.507   0.000  0.00  0.00     0.255 A 
HETATM   30  C   UNK N   1       9.668  -2.062   0.000  0.00  0.00     0.135 A 
HETATM   31  C   UNK N   1      10.454  -0.249   0.000  0.00  0.00     0.237 A 
HETATM   32  C   UNK N   1       3.864   2.532   0.000  0.00  0.00    -0.003 A 
HETATM   33  C   UNK N   1       5.244  -4.164   0.000  0.00  0.00     0.126 C 
HETATM   34  C   UNK N   1       9.256   0.826   0.000  0.00  0.00     0.064 A 
HETATM   35  C   UNK N   1       9.465  -0.146   0.000  0.00  0.00     0.225 A 
HETATM   36  C   UNK N   1      10.122   1.326   0.000  0.00  0.00     0.096 A 
HETATM   37  C   UNK N   1       8.390   1.326   0.000  0.00  0.00     0.031 A 
HETATM   38  C   UNK N   1      11.424  -0.490   0.000  0.00  0.00     0.089 A 
HETATM   39  C   UNK N   1       8.390   2.326   0.000  0.00  0.00     0.047 A 
HETATM   40  C   UNK N   1      10.122   2.326   0.000  0.00  0.00     0.007 A 
HETATM   41  C   UNK N   1       3.932   3.530   0.000  0.00  0.00     0.012 A 
HETATM   42  C   UNK N   1       9.256   2.826   0.000  0.00  0.00     0.088 A 
HETATM   43  C   UNK N   1       7.496   0.791   0.000  0.00  0.00     0.092 A 
HETATM   44  C   UNK N   1       7.496   2.861   0.000  0.00  0.00     0.107 A 
HETATM   45  C   UNK N   1       6.590   1.305   0.000  0.00  0.00     0.044 A 
HETATM   46  C   UNK N   1       6.590   2.347   0.000  0.00  0.00     0.084 A 
HETATM   47  C   UNK N   1       4.929   3.462   0.000  0.00  0.00     0.006 A 
HETATM   48  C   UNK N   1      10.988   2.826   0.000  0.00  0.00     0.054 C 
HETATM   49  C   UNK N   1       5.143  -1.828   0.000  0.00  0.00     0.162 A 
HETATM   50  C   UNK N   1       4.025  -0.505   0.000  0.00  0.00     0.162 A 
HETATM   51  C   UNK N   1       4.380  -2.474   0.000  0.00  0.00     0.137 A 
HETATM   52  C   UNK N   1       3.261  -1.151   0.000  0.00  0.00     0.137 A 
HETATM   53  C   UNK N   1       4.862   2.464   0.000  0.00  0.00     0.251 A 
HETATM   54  C   UNK N   1       5.726   0.802   0.000  0.00  0.00     0.123 A 
HETATM   55  C   UNK N   1       5.683   4.119   0.000  0.00  0.00     0.054 C 
HETATM   56  C   UNK N   1       2.675  -2.781   0.000  0.00  0.00     0.143 C 
HETATM   57  H   UNK N   1       4.668   1.595   0.000  0.00  0.00     0.210 HD
HETATM   58  H   UNK N   1       6.057   1.406   0.000  0.00  0.00     0.169 HD
HETATM   59  H   UNK N   1       8.757   0.147   0.000  0.00  0.00     0.218 HD
ENDROOT
BRANCH  42  60
HETATM   60  O   UNK N   1       9.256   3.826   0.000  0.00  0.00    -0.359 OA
HETATM   61  H   UNK N   1       9.793   4.136   0.000  0.00  0.00     0.218 HD
ENDBRANCH  42  60
BRANCH  44  62
HETATM   62  O   UNK N   1       7.507   3.861   0.000  0.00  0.00    -0.357 OA
HETATM   63  H   UNK N   1       8.048   4.164   0.000  0.00  0.00     0.218 HD
ENDBRANCH  44  62
TORSDOF 8
