REMARK  10 active torsions:
REMARK  status: ('A' for Active; 'I' for Inactive)
REMARK    1  A    between atoms: C_26  and  O_4 
REMARK    2  A    between atoms: O_8  and  C_40 
REMARK    3  A    between atoms: O_10  and  C_44 
REMARK    4  A    between atoms: N_14  and  C_56 
REMARK    5  A    between atoms: C_18  and  C_19 
REMARK    6  A    between atoms: C_32  and  C_36 
REMARK    7  A    between atoms: C_43  and  C_54 
REMARK    8  A    between atoms: C_46  and  C_48 
REMARK    9  A    between atoms: C_47  and  C_49 
REMARK   10  A    between atoms: C_53  and  C_56 
ROOT
HETATM    1  O   UNK N   1       4.890  -2.573   0.000  0.00  0.00    -0.394 OA
HETATM    2  O   UNK N   1       5.622   0.056   0.000  0.00  0.00    -0.394 OA
HETATM    3  O   UNK N   1       6.957  -2.990   0.000  0.00  0.00    -0.297 OA
HETATM    4  O   UNK N   1      11.755   0.246   0.000  0.00  0.00    -0.305 OA
HETATM    5  O   UNK N   1      11.282  -1.660   0.000  0.00  0.00    -0.319 OA
HETATM    6  O   UNK N   1      10.671  -1.509   0.000  0.00  0.00    -0.286 OA
HETATM    7  O   UNK N   1       8.902  -0.482   0.000  0.00  0.00    -0.359 OA
HETATM    8  O   UNK N   1       5.064   1.331   0.000  0.00  0.00    -0.268 OA
HETATM    9  N   UNK N   1       4.815   0.540   0.000  0.00  0.00    -0.325 N 
HETATM   10  N   UNK N   1       2.938  -0.151   0.000  0.00  0.00    -0.413 N 
HETATM   11  N   UNK N   1       6.588   1.494   0.000  0.00  0.00    -0.320 N 
HETATM   12  N   UNK N   1       5.753   0.885   0.000  0.00  0.00    -0.313 N 
ATOM     13  HN  UNK N   1       5.839   1.902   0.000  1.00  0.00     0.186 HD
HETATM   14  C   UNK N   1       4.556  -0.874   0.000  0.00  0.00     0.040 A 
HETATM   15  C   UNK N   1       5.214  -1.627   0.000  0.00  0.00     0.135 A 
HETATM   16  C   UNK N   1       6.195  -1.435   0.000  0.00  0.00     0.081 A 
HETATM   17  C   UNK N   1       4.624   0.124   0.000  0.00  0.00     0.131 A 
HETATM   18  C   UNK N   1       3.794   0.681   0.000  0.00  0.00     0.033 A 
HETATM   19  C   UNK N   1       7.025  -1.992   0.000  0.00  0.00     0.139 A 
HETATM   20  C   UNK N   1       3.895  -1.624   0.000  0.00  0.00     0.015 A 
HETATM   21  C   UNK N   1       7.923  -1.552   0.000  0.00  0.00     0.084 A 
HETATM   22  C   UNK N   1       7.143  -1.116   0.000  0.00  0.00     0.020 A 
HETATM   23  C   UNK N   1       8.753  -2.110   0.000  0.00  0.00     0.156 A 
HETATM   24  C   UNK N   1       2.689   0.362   0.000  0.00  0.00     0.017 A 
HETATM   25  C   UNK N   1       3.862   1.679   0.000  0.00  0.00    -0.020 A 
HETATM   26  C   UNK N   1       7.991  -0.554   0.000  0.00  0.00     0.021 A 
HETATM   27  C   UNK N   1       9.734  -1.917   0.000  0.00  0.00     0.029 A 
HETATM   28  C   UNK N   1      11.350  -0.662   0.000  0.00  0.00     0.237 A 
HETATM   29  C   UNK N   1      10.152   0.413   0.000  0.00  0.00     0.064 A 
HETATM   30  C   UNK N   1       4.760   2.119   0.000  0.00  0.00    -0.003 A 
HETATM   31  C   UNK N   1      11.018   0.913   0.000  0.00  0.00     0.096 A 
HETATM   32  C   UNK N   1       9.286   0.913   0.000  0.00  0.00     0.031 A 
HETATM   33  C   UNK N   1      10.361  -0.559   0.000  0.00  0.00     0.225 A 
HETATM   34  C   UNK N   1       9.286   1.913   0.000  0.00  0.00     0.047 A 
HETATM   35  C   UNK N   1      11.018   1.913   0.000  0.00  0.00     0.007 A 
HETATM   36  C   UNK N   1      10.564  -2.475   0.000  0.00  0.00     0.137 A 
HETATM   37  C   UNK N   1      10.152   2.413   0.000  0.00  0.00     0.088 A 
HETATM   38  C   UNK N   1       8.392   0.378   0.000  0.00  0.00     0.092 A 
HETATM   39  C   UNK N   1      12.320  -0.903   0.000  0.00  0.00     0.089 A 
HETATM   40  C   UNK N   1       7.486   0.892   0.000  0.00  0.00     0.044 A 
HETATM   41  C   UNK N   1       8.392   2.448   0.000  0.00  0.00     0.107 A 
HETATM   42  C   UNK N   1       7.486   1.934   0.000  0.00  0.00     0.084 A 
HETATM   43  C   UNK N   1       4.047   1.180   0.000  0.00  0.00     0.162 A 
HETATM   44  C   UNK N   1       4.645  -0.446   0.000  0.00  0.00     0.162 A 
HETATM   45  C   UNK N   1       3.108   0.834   0.000  0.00  0.00     0.137 A 
HETATM   46  C   UNK N   1       3.707  -0.791   0.000  0.00  0.00     0.137 A 
HETATM   47  C   UNK N   1       4.828   3.117   0.000  0.00  0.00     0.012 A 
HETATM   48  C   UNK N   1      11.884   2.413   0.000  0.00  0.00     0.054 C 
HETATM   49  C   UNK N   1       5.825   3.049   0.000  0.00  0.00     0.006 A 
HETATM   50  C   UNK N   1       6.621   0.389   0.000  0.00  0.00     0.123 A 
HETATM   51  C   UNK N   1       2.000  -0.497   0.000  0.00  0.00     0.143 A 
HETATM   52  C   UNK N   1       5.758   2.051   0.000  0.00  0.00     0.251 A 
HETATM   53  C   UNK N   1       6.579   3.707   0.000  0.00  0.00     0.054 C 
HETATM   54  H   UNK N   1       4.282  -2.693   0.000  0.00  0.00     0.210 HD
HETATM   55  H   UNK N   1       5.895  -0.501   0.000  0.00  0.00     0.210 HD
HETATM   56  H   UNK N   1       6.953   0.993   0.000  0.00  0.00     0.169 HD
HETATM   57  H   UNK N   1       9.521  -0.475   0.000  0.00  0.00     0.218 HD
ENDROOT
BRANCH  23  58
HETATM   58  O   UNK N   1       8.556  -3.090   0.000  0.00  0.00    -0.386 OA
HETATM   59  C   UNK N   1       9.306  -3.751   0.000  0.00  0.00     0.202 C 
ENDBRANCH  23  58
BRANCH  41  60
HETATM   60  O   UNK N   1       8.403   3.448   0.000  0.00  0.00    -0.357 OA
HETATM   61  H   UNK N   1       8.944   3.751   0.000  0.00  0.00     0.218 HD
ENDBRANCH  41  60
BRANCH  37  62
HETATM   62  O   UNK N   1      10.152   3.413   0.000  0.00  0.00    -0.359 OA
HETATM   63  H   UNK N   1      10.688   3.723   0.000  0.00  0.00     0.218 HD
ENDBRANCH  37  62
TORSDOF 10
