REMARK  8 active torsions:
REMARK  status: ('A' for Active; 'I' for Inactive)
REMARK    1  A    between atoms: O_8  and  C_43 
REMARK    2  A    between atoms: O_10  and  C_45 
REMARK    3  A    between atoms: N_14  and  C_54 
REMARK    4  A    between atoms: C_17  and  C_20 
REMARK    5  A    between atoms: C_19  and  C_22 
REMARK    6  A    between atoms: C_21  and  C_25 
REMARK    7  A    between atoms: C_30  and  C_31 
REMARK    8  A    between atoms: C_46  and  C_55 
ROOT
HETATM    1  O   UNK N   1       4.027  -1.996   0.000  0.00  0.00    -0.395 OA
HETATM    2  O   UNK N   1       6.934  -0.941   0.000  0.00  0.00    -0.395 OA
HETATM    3  O   UNK N   1       3.460   0.678   0.000  0.00  0.00    -0.394 OA
HETATM    4  O   UNK N   1       7.775  -1.315   0.000  0.00  0.00    -0.386 OA
HETATM    5  O   UNK N   1      11.254  -1.934   0.000  0.00  0.00    -0.319 OA
HETATM    6  O   UNK N   1      11.727  -0.029   0.000  0.00  0.00    -0.305 OA
HETATM    7  O   UNK N   1       9.547  -1.450   0.000  0.00  0.00    -0.286 OA
HETATM    8  O   UNK N   1       8.376  -0.896   0.000  0.00  0.00    -0.359 OA
HETATM    9  O   UNK N   1       4.900   2.334   0.000  0.00  0.00    -0.268 OA
HETATM   10  N   UNK N   1       4.815  -0.035   0.000  0.00  0.00    -0.325 N 
HETATM   11  N   UNK N   1       2.938  -0.726   0.000  0.00  0.00    -0.413 N 
HETATM   12  N   UNK N   1       6.560   1.219   0.000  0.00  0.00    -0.320 N 
HETATM   13  N   UNK N   1       5.754   0.310   0.000  0.00  0.00    -0.313 N 
ATOM     14  HN  UNK N   1       5.750   1.330   0.000  1.00  0.00     0.186 HD
HETATM   15  C   UNK N   1       5.756  -2.114   0.000  0.00  0.00     0.040 A 
HETATM   16  C   UNK N   1       4.926  -1.557   0.000  0.00  0.00     0.130 A 
HETATM   17  C   UNK N   1       4.993  -0.559   0.000  0.00  0.00     0.040 A 
HETATM   18  C   UNK N   1       6.737  -1.921   0.000  0.00  0.00     0.130 A 
HETATM   19  C   UNK N   1       7.567  -2.479   0.000  0.00  0.00     0.044 A 
HETATM   20  C   UNK N   1       4.336   0.195   0.000  0.00  0.00     0.131 A 
HETATM   21  C   UNK N   1       5.558  -3.094   0.000  0.00  0.00     0.015 A 
HETATM   22  C   UNK N   1       4.660   1.141   0.000  0.00  0.00     0.033 A 
HETATM   23  C   UNK N   1       8.465  -2.039   0.000  0.00  0.00     0.151 A 
HETATM   24  C   UNK N   1       5.744  -1.220   0.000  0.00  0.00     0.015 A 
HETATM   25  C   UNK N   1       7.499  -3.477   0.000  0.00  0.00     0.015 C 
HETATM   26  C   UNK N   1       5.660   1.160   0.000  0.00  0.00     0.017 A 
HETATM   27  C   UNK N   1       4.002   1.894   0.000  0.00  0.00    -0.020 A 
HETATM   28  C   UNK N   1       9.411  -2.363   0.000  0.00  0.00     0.029 A 
HETATM   29  C   UNK N   1      10.165  -1.705   0.000  0.00  0.00     0.137 A 
HETATM   30  C   UNK N   1       4.070   2.892   0.000  0.00  0.00    -0.003 A 
HETATM   31  C   UNK N   1      11.322  -0.937   0.000  0.00  0.00     0.237 A 
HETATM   32  C   UNK N   1       8.100  -0.212   0.000  0.00  0.00     0.202 A 
HETATM   33  C   UNK N   1      10.124   0.138   0.000  0.00  0.00     0.064 A 
HETATM   34  C   UNK N   1      10.334  -0.833   0.000  0.00  0.00     0.225 A 
HETATM   35  C   UNK N   1      10.990   0.638   0.000  0.00  0.00     0.096 A 
HETATM   36  C   UNK N   1       9.258   0.638   0.000  0.00  0.00     0.031 A 
HETATM   37  C   UNK N   1       9.258   1.638   0.000  0.00  0.00     0.047 A 
HETATM   38  C   UNK N   1       4.968   3.332   0.000  0.00  0.00     0.012 A 
HETATM   39  C   UNK N   1      12.293  -1.178   0.000  0.00  0.00     0.089 A 
HETATM   40  C   UNK N   1      10.990   1.638   0.000  0.00  0.00     0.007 A 
HETATM   41  C   UNK N   1      10.124   2.138   0.000  0.00  0.00     0.088 A 
HETATM   42  C   UNK N   1       8.364   0.104   0.000  0.00  0.00     0.092 A 
HETATM   43  C   UNK N   1       8.364   2.173   0.000  0.00  0.00     0.107 A 
HETATM   44  C   UNK N   1       7.458   0.618   0.000  0.00  0.00     0.044 A 
HETATM   45  C   UNK N   1       7.458   1.659   0.000  0.00  0.00     0.084 A 
HETATM   46  C   UNK N   1       5.798   2.775   0.000  0.00  0.00     0.006 A 
HETATM   47  C   UNK N   1       4.645  -1.021   0.000  0.00  0.00     0.162 A 
HETATM   48  C   UNK N   1       4.047   0.605   0.000  0.00  0.00     0.162 A 
HETATM   49  C   UNK N   1       3.707  -1.366   0.000  0.00  0.00     0.137 A 
HETATM   50  C   UNK N   1       3.108   0.259   0.000  0.00  0.00     0.137 A 
HETATM   51  C   UNK N   1      11.856   2.138   0.000  0.00  0.00     0.054 C 
HETATM   52  C   UNK N   1       5.730   1.777   0.000  0.00  0.00     0.251 A 
HETATM   53  C   UNK N   1       6.695  -0.028   0.000  0.00  0.00     0.123 A 
HETATM   54  C   UNK N   1       6.696   3.215   0.000  0.00  0.00     0.054 C 
HETATM   55  C   UNK N   1       2.000  -1.072   0.000  0.00  0.00     0.143 C 
HETATM   56  H   UNK N   1       3.985  -2.615   0.000  0.00  0.00     0.210 HD
HETATM   57  H   UNK N   1       7.344  -0.476   0.000  0.00  0.00     0.210 HD
HETATM   58  H   UNK N   1       3.448   1.298   0.000  0.00  0.00     0.210 HD
HETATM   59  H   UNK N   1       6.833   0.662   0.000  0.00  0.00     0.169 HD
HETATM   60  H   UNK N   1       8.916  -1.200   0.000  0.00  0.00     0.218 HD
ENDROOT
BRANCH  41  61
HETATM   61  O   UNK N   1      10.124   3.138   0.000  0.00  0.00    -0.359 OA
HETATM   62  H   UNK N   1      10.661   3.448   0.000  0.00  0.00     0.218 HD
ENDBRANCH  41  61
BRANCH  43  63
HETATM   63  O   UNK N   1       8.376   3.173   0.000  0.00  0.00    -0.357 OA
HETATM   64  H   UNK N   1       8.916   3.477   0.000  0.00  0.00     0.218 HD
ENDBRANCH  43  63
TORSDOF 8
