REMARK  10 active torsions:
REMARK  status: ('A' for Active; 'I' for Inactive)
REMARK    1  A    between atoms: C_21  and  O_2 
REMARK    2  A    between atoms: C_26  and  O_4 
REMARK    3  A    between atoms: O_9  and  C_44 
REMARK    4  A    between atoms: O_11  and  C_46 
REMARK    5  A    between atoms: N_15  and  C_55 
REMARK    6  A    between atoms: C_18  and  C_19 
REMARK    7  A    between atoms: C_47  and  C_56 
REMARK    8  A    between atoms: C_49  and  C_55 
REMARK    9  A    between atoms: C_50  and  C_52 
REMARK   10  A    between atoms: C_51  and  C_53 
ROOT
HETATM    1  O   UNK N   1       5.373  -2.573   0.000  0.00  0.00    -0.395 OA
HETATM    2  O   UNK N   1       6.105   0.056   0.000  0.00  0.00    -0.394 OA
HETATM    3  O   UNK N   1       2.596   1.097   0.000  0.00  0.00    -0.400 OA
HETATM    4  O   UNK N   1      11.765  -1.660   0.000  0.00  0.00    -0.319 OA
HETATM    5  O   UNK N   1      12.238   0.246   0.000  0.00  0.00    -0.305 OA
HETATM    6  O   UNK N   1      11.155  -1.509   0.000  0.00  0.00    -0.286 OA
HETATM    7  O   UNK N   1       9.385  -0.482   0.000  0.00  0.00    -0.359 OA
HETATM    8  O   UNK N   1       5.547   1.331   0.000  0.00  0.00    -0.268 OA
HETATM    9  N   UNK N   1       5.298   0.540   0.000  0.00  0.00    -0.325 N 
HETATM   10  N   UNK N   1       3.422  -0.151   0.000  0.00  0.00    -0.413 N 
HETATM   11  N   UNK N   1       7.071   1.494   0.000  0.00  0.00    -0.320 N 
HETATM   12  N   UNK N   1       6.237   0.885   0.000  0.00  0.00    -0.313 N 
ATOM     13  HN  UNK N   1       6.322   1.902   0.000  1.00  0.00     0.186 HD
HETATM   14  C   UNK N   1       6.678  -1.435   0.000  0.00  0.00     0.040 A 
HETATM   15  C   UNK N   1       5.697  -1.627   0.000  0.00  0.00     0.130 A 
HETATM   16  C   UNK N   1       5.039  -0.874   0.000  0.00  0.00     0.040 A 
HETATM   17  C   UNK N   1       7.508  -1.992   0.000  0.00  0.00     0.130 A 
HETATM   18  C   UNK N   1       8.406  -1.552   0.000  0.00  0.00     0.044 A 
HETATM   19  C   UNK N   1       5.107   0.124   0.000  0.00  0.00     0.134 A 
HETATM   20  C   UNK N   1       7.626  -1.116   0.000  0.00  0.00     0.015 A 
HETATM   21  C   UNK N   1       4.277   0.681   0.000  0.00  0.00     0.061 A 
HETATM   22  C   UNK N   1       9.236  -2.110   0.000  0.00  0.00     0.151 A 
HETATM   23  C   UNK N   1       4.378  -1.624   0.000  0.00  0.00     0.015 A 
HETATM   24  C   UNK N   1       8.474  -0.554   0.000  0.00  0.00     0.015 A 
HETATM   25  C   UNK N   1       3.316   0.404   0.000  0.00  0.00     0.175 A 
HETATM   26  C   UNK N   1       4.345   1.679   0.000  0.00  0.00    -0.017 A 
HETATM   27  C   UNK N   1      10.217  -1.917   0.000  0.00  0.00     0.029 A 
HETATM   28  C   UNK N   1      11.047  -2.475   0.000  0.00  0.00     0.137 A 
HETATM   29  C   UNK N   1       5.243   2.119   0.000  0.00  0.00    -0.003 A 
HETATM   30  C   UNK N   1      11.833  -0.662   0.000  0.00  0.00     0.237 A 
HETATM   31  C   UNK N   1      10.635   0.413   0.000  0.00  0.00     0.064 A 
HETATM   32  C   UNK N   1      10.844  -0.559   0.000  0.00  0.00     0.225 A 
HETATM   33  C   UNK N   1      11.501   0.913   0.000  0.00  0.00     0.096 A 
HETATM   34  C   UNK N   1       9.769   0.913   0.000  0.00  0.00     0.031 A 
HETATM   35  C   UNK N   1       5.311   3.117   0.000  0.00  0.00     0.012 A 
HETATM   36  C   UNK N   1       9.769   1.913   0.000  0.00  0.00     0.047 A 
HETATM   37  C   UNK N   1      12.803  -0.903   0.000  0.00  0.00     0.089 A 
HETATM   38  C   UNK N   1      11.501   1.913   0.000  0.00  0.00     0.007 A 
HETATM   39  C   UNK N   1      10.635   2.413   0.000  0.00  0.00     0.088 A 
HETATM   40  C   UNK N   1       8.875   0.378   0.000  0.00  0.00     0.092 A 
HETATM   41  C   UNK N   1       8.875   2.448   0.000  0.00  0.00     0.107 A 
HETATM   42  C   UNK N   1       7.969   0.892   0.000  0.00  0.00     0.044 A 
HETATM   43  C   UNK N   1       7.969   1.934   0.000  0.00  0.00     0.084 A 
HETATM   44  C   UNK N   1       6.309   3.049   0.000  0.00  0.00     0.006 A 
HETATM   45  C   UNK N   1       4.530   1.180   0.000  0.00  0.00     0.162 A 
HETATM   46  C   UNK N   1       5.128  -0.446   0.000  0.00  0.00     0.162 A 
HETATM   47  C   UNK N   1       3.591   0.834   0.000  0.00  0.00     0.137 A 
HETATM   48  C   UNK N   1       4.190  -0.791   0.000  0.00  0.00     0.137 A 
HETATM   49  C   UNK N   1      12.367   2.413   0.000  0.00  0.00     0.054 C 
HETATM   50  C   UNK N   1       6.241   2.051   0.000  0.00  0.00     0.251 A 
HETATM   51  C   UNK N   1       7.104   0.389   0.000  0.00  0.00     0.123 A 
HETATM   52  C   UNK N   1       7.062   3.707   0.000  0.00  0.00     0.054 C 
HETATM   53  C   UNK N   1       2.483  -0.497   0.000  0.00  0.00     0.143 A 
HETATM   54  H   UNK N   1       4.765  -2.693   0.000  0.00  0.00     0.210 HD
HETATM   55  H   UNK N   1       6.378  -0.501   0.000  0.00  0.00     0.210 HD
HETATM   56  H   UNK N   1       2.000   0.925   0.000  0.00  0.00     0.209 HD
HETATM   57  H   UNK N   1       7.436   0.993   0.000  0.00  0.00     0.169 HD
HETATM   58  H   UNK N   1      10.005  -0.475   0.000  0.00  0.00     0.218 HD
ENDROOT
BRANCH  17  59
HETATM   59  O   UNK N   1       7.440  -2.990   0.000  0.00  0.00    -0.395 OA
HETATM   60  H   UNK N   1       6.883  -3.263   0.000  0.00  0.00     0.210 HD
ENDBRANCH  17  59
BRANCH  22  61
HETATM   61  O   UNK N   1       9.039  -3.090   0.000  0.00  0.00    -0.386 OA
HETATM   62  C   UNK N   1       9.789  -3.751   0.000  0.00  0.00     0.202 C 
ENDBRANCH  22  61
BRANCH  41  63
HETATM   63  O   UNK N   1       8.886   3.448   0.000  0.00  0.00    -0.357 OA
HETATM   64  H   UNK N   1       9.427   3.751   0.000  0.00  0.00     0.218 HD
ENDBRANCH  41  63
BRANCH  39  65
HETATM   65  O   UNK N   1      10.635   3.413   0.000  0.00  0.00    -0.359 OA
HETATM   66  H   UNK N   1      11.172   3.723   0.000  0.00  0.00     0.218 HD
ENDBRANCH  39  65
TORSDOF 10
